# Residuals  
# Time       	U            	p            
2.500000e-03	1.000000e+00	1.000000e+00
5.000000e-03	4.736220e-01	8.644600e-01
7.500000e-03	4.711900e-01	9.187290e-01
1.000000e-02	3.651560e-01	9.046090e-01
1.250000e-02	4.026270e-01	9.293100e-01
1.500000e-02	3.399920e-01	9.201360e-01
1.750000e-02	4.007390e-01	9.393190e-01
2.000000e-02	3.480810e-01	9.324750e-01
2.250000e-02	4.201090e-01	9.479610e-01
2.500000e-02	3.710030e-01	9.424650e-01
2.750000e-02	4.479720e-01	9.550390e-01
3.000000e-02	4.017070e-01	9.504580e-01
3.250000e-02	4.805830e-01	9.607260e-01
3.500000e-02	4.367880e-01	9.569270e-01
3.750000e-02	5.154790e-01	9.650220e-01
4.000000e-02	4.738620e-01	9.621930e-01
4.250000e-02	5.507640e-01	9.684920e-01
4.500000e-02	5.113960e-01	9.665700e-01
4.750000e-02	5.849520e-01	9.715200e-01
5.000000e-02	5.480880e-01	9.702020e-01
5.250000e-02	6.170490e-01	9.738890e-01
5.500000e-02	5.831400e-01	9.729900e-01
5.750000e-02	6.464870e-01	9.758430e-01
6.000000e-02	6.158340e-01	9.754020e-01
6.250000e-02	6.730950e-01	9.774930e-01
6.500000e-02	6.455440e-01	9.773640e-01
6.750000e-02	6.964420e-01	9.789310e-01
7.000000e-02	6.719470e-01	9.789860e-01
7.250000e-02	7.168210e-01	9.800580e-01
7.500000e-02	6.949620e-01	9.802400e-01
7.750000e-02	7.343250e-01	9.810180e-01
8.000000e-02	7.146330e-01	9.813780e-01
8.250000e-02	7.490050e-01	9.818490e-01
8.500000e-02	7.313570e-01	9.823550e-01
8.750000e-02	7.612840e-01	9.825670e-01
9.000000e-02	7.455330e-01	9.830710e-01
9.250000e-02	7.715370e-01	9.831250e-01
9.500000e-02	7.573910e-01	9.836270e-01
9.750000e-02	7.797810e-01	9.836080e-01
1.000000e-01	7.671070e-01	9.840330e-01
1.025000e-01	7.861410e-01	9.839790e-01
1.050000e-01	7.749770e-01	9.843790e-01
1.075000e-01	7.910910e-01	9.842720e-01
1.100000e-01	7.812960e-01	9.846040e-01
1.125000e-01	7.949130e-01	9.844520e-01
1.150000e-01	7.864520e-01	9.847620e-01
1.175000e-01	7.980290e-01	9.845690e-01
1.200000e-01	7.905170e-01	9.848280e-01
1.225000e-01	8.002050e-01	9.846220e-01
1.250000e-01	7.935120e-01	9.848680e-01
1.275000e-01	8.016300e-01	9.845890e-01
1.300000e-01	7.958200e-01	9.848210e-01
1.325000e-01	8.026860e-01	9.845150e-01
1.350000e-01	7.975920e-01	9.845910e-01
1.375000e-01	8.033650e-01	9.843400e-01
1.400000e-01	8.008090e-01	9.844150e-01
1.425000e-01	8.035770e-01	9.841050e-01
1.450000e-01	8.123670e-01	9.840100e-01
1.475000e-01	8.036710e-01	9.838370e-01
1.500000e-01	8.213440e-01	9.836050e-01
1.525000e-01	8.036260e-01	9.835330e-01
1.550000e-01	8.283790e-01	9.831870e-01
1.575000e-01	8.035820e-01	9.830270e-01
1.600000e-01	8.337140e-01	9.827350e-01
1.625000e-01	8.035770e-01	9.825580e-01
1.650000e-01	8.377280e-01	9.822720e-01
1.675000e-01	8.035680e-01	9.821130e-01
1.700000e-01	8.405040e-01	9.816500e-01
1.725000e-01	8.036920e-01	9.815070e-01
1.750000e-01	8.423760e-01	9.811290e-01
1.775000e-01	8.041310e-01	9.809200e-01
1.800000e-01	8.434920e-01	9.805970e-01
1.825000e-01	8.045730e-01	9.803020e-01
1.850000e-01	8.437640e-01	9.798700e-01
1.875000e-01	8.054450e-01	9.796760e-01
1.900000e-01	8.433810e-01	9.792360e-01
1.925000e-01	8.065010e-01	9.790800e-01
1.950000e-01	8.426270e-01	9.785610e-01
1.975000e-01	8.075260e-01	9.785030e-01
2.000000e-01	8.414700e-01	9.778550e-01
2.025000e-01	8.088690e-01	9.778860e-01
2.050000e-01	8.401700e-01	9.771730e-01
2.075000e-01	8.103610e-01	9.773060e-01
2.100000e-01	8.384400e-01	9.765220e-01
2.125000e-01	8.118260e-01	9.766280e-01
2.150000e-01	8.362830e-01	9.758300e-01
2.175000e-01	8.131370e-01	9.759100e-01
2.200000e-01	8.328200e-01	9.751630e-01
2.225000e-01	8.141640e-01	9.751650e-01
2.250000e-01	8.284790e-01	9.744610e-01
2.275000e-01	8.150570e-01	9.744140e-01
2.300000e-01	8.251710e-01	9.736430e-01
2.325000e-01	8.156270e-01	9.737050e-01
2.350000e-01	8.220660e-01	9.730690e-01
2.375000e-01	8.151060e-01	9.729850e-01
2.400000e-01	8.194090e-01	9.724560e-01
2.425000e-01	8.133290e-01	9.723340e-01
2.450000e-01	8.175190e-01	9.719500e-01
2.475000e-01	8.118420e-01	9.717820e-01
2.500000e-01	8.171460e-01	9.717520e-01
2.525000e-01	8.105690e-01	9.711490e-01
2.550000e-01	8.159990e-01	9.717030e-01
2.575000e-01	8.092000e-01	9.705900e-01
2.600000e-01	8.145070e-01	9.717020e-01
2.625000e-01	8.080180e-01	9.701730e-01
2.650000e-01	8.133270e-01	9.715670e-01
2.675000e-01	8.075660e-01	9.698290e-01
2.700000e-01	8.125310e-01	9.716510e-01
2.725000e-01	8.073050e-01	9.695650e-01
2.750000e-01	8.120670e-01	9.716730e-01
2.775000e-01	8.076960e-01	9.693500e-01
2.800000e-01	8.117320e-01	9.715020e-01
2.825000e-01	8.082880e-01	9.690280e-01
2.850000e-01	8.118860e-01	9.716620e-01
2.875000e-01	8.109100e-01	9.691510e-01
2.900000e-01	8.121460e-01	9.715120e-01
2.925000e-01	8.131210e-01	9.693030e-01
2.950000e-01	8.128620e-01	9.713230e-01
2.975000e-01	8.141870e-01	9.693220e-01
3.000000e-01	8.138770e-01	9.712300e-01
3.025000e-01	8.149570e-01	9.693330e-01
3.050000e-01	8.145260e-01	9.709430e-01
3.075000e-01	8.149000e-01	9.692220e-01
3.100000e-01	8.157540e-01	9.706000e-01
3.125000e-01	8.152940e-01	9.693010e-01
3.150000e-01	8.170870e-01	9.705130e-01
3.175000e-01	8.163850e-01	9.693260e-01
3.200000e-01	8.178590e-01	9.703250e-01
3.225000e-01	8.169090e-01	9.694210e-01
3.250000e-01	8.179880e-01	9.701050e-01
3.275000e-01	8.168300e-01	9.695320e-01
3.300000e-01	8.175030e-01	9.699710e-01
3.325000e-01	8.161920e-01	9.695920e-01
3.350000e-01	8.168330e-01	9.698640e-01
3.375000e-01	8.156760e-01	9.695590e-01
3.400000e-01	8.162800e-01	9.697300e-01
3.425000e-01	8.153170e-01	9.696250e-01
3.450000e-01	8.159340e-01	9.695930e-01
3.475000e-01	8.150660e-01	9.696530e-01
3.500000e-01	8.160220e-01	9.696430e-01
3.525000e-01	8.154980e-01	9.697410e-01
3.550000e-01	8.163060e-01	9.695840e-01
3.575000e-01	8.166620e-01	9.698730e-01
3.600000e-01	8.174440e-01	9.696010e-01
3.625000e-01	8.191240e-01	9.699660e-01
3.650000e-01	8.196140e-01	9.695560e-01
3.675000e-01	8.233020e-01	9.701200e-01
3.700000e-01	8.234680e-01	9.695900e-01
3.725000e-01	8.290300e-01	9.702630e-01
3.750000e-01	8.274990e-01	9.695420e-01
3.775000e-01	8.320150e-01	9.704420e-01
3.800000e-01	8.302440e-01	9.692900e-01
3.825000e-01	8.337270e-01	9.706160e-01
3.850000e-01	8.319480e-01	9.694120e-01
3.875000e-01	8.338340e-01	9.715550e-01
3.900000e-01	8.331120e-01	9.697480e-01
3.925000e-01	8.332820e-01	9.717880e-01
3.950000e-01	8.329100e-01	9.697390e-01
3.975000e-01	8.326140e-01	9.717160e-01
4.000000e-01	8.322850e-01	9.697840e-01
4.025000e-01	8.322560e-01	9.714530e-01
4.050000e-01	8.317840e-01	9.697460e-01
4.075000e-01	8.320110e-01	9.712470e-01
4.100000e-01	8.314370e-01	9.698190e-01
4.125000e-01	8.317220e-01	9.712130e-01
4.150000e-01	8.313200e-01	9.698780e-01
4.175000e-01	8.313080e-01	9.711910e-01
4.200000e-01	8.313540e-01	9.700010e-01
4.225000e-01	8.309100e-01	9.712850e-01
4.250000e-01	8.314810e-01	9.701150e-01
4.275000e-01	8.303820e-01	9.712970e-01
4.300000e-01	8.313890e-01	9.703410e-01
4.325000e-01	8.298300e-01	9.713560e-01
4.350000e-01	8.313280e-01	9.704880e-01
4.375000e-01	8.292850e-01	9.714990e-01
4.400000e-01	8.312400e-01	9.706220e-01
4.425000e-01	8.289290e-01	9.714620e-01
4.450000e-01	8.311360e-01	9.708720e-01
4.475000e-01	8.286680e-01	9.715520e-01
4.500000e-01	8.310770e-01	9.710640e-01
4.525000e-01	8.284690e-01	9.715600e-01
4.550000e-01	8.310260e-01	9.713360e-01
4.575000e-01	8.282070e-01	9.717080e-01
4.600000e-01	8.311320e-01	9.714540e-01
4.625000e-01	8.280800e-01	9.717710e-01
4.650000e-01	8.313370e-01	9.717700e-01
4.675000e-01	8.280260e-01	9.718250e-01
4.700000e-01	8.315820e-01	9.719990e-01
4.725000e-01	8.280560e-01	9.718880e-01
4.750000e-01	8.318890e-01	9.722980e-01
4.775000e-01	8.281920e-01	9.719650e-01
4.800000e-01	8.324120e-01	9.725780e-01
4.825000e-01	8.284220e-01	9.720940e-01
4.850000e-01	8.329110e-01	9.728610e-01
4.875000e-01	8.286680e-01	9.722150e-01
4.900000e-01	8.335070e-01	9.732030e-01
4.925000e-01	8.291170e-01	9.723610e-01
4.950000e-01	8.342320e-01	9.734220e-01
4.975000e-01	8.296430e-01	9.724360e-01
5.000000e-01	8.350170e-01	9.736600e-01
5.025000e-01	8.302670e-01	9.725610e-01
5.050000e-01	8.357310e-01	9.739070e-01
5.075000e-01	8.310150e-01	9.727690e-01
5.100000e-01	8.364140e-01	9.741370e-01
5.125000e-01	8.318190e-01	9.730400e-01
5.150000e-01	8.364610e-01	9.744010e-01
5.175000e-01	8.329560e-01	9.733380e-01
5.200000e-01	8.353550e-01	9.747450e-01
5.225000e-01	8.338400e-01	9.737130e-01
5.250000e-01	8.341490e-01	9.748320e-01
5.275000e-01	8.339400e-01	9.740780e-01
5.300000e-01	8.332930e-01	9.751060e-01
5.325000e-01	8.335150e-01	9.743960e-01
5.350000e-01	8.323140e-01	9.751070e-01
5.375000e-01	8.324660e-01	9.746290e-01
5.400000e-01	8.312690e-01	9.753250e-01
5.425000e-01	8.311890e-01	9.749760e-01
5.450000e-01	8.301240e-01	9.753490e-01
5.475000e-01	8.317460e-01	9.751370e-01
5.500000e-01	8.289800e-01	9.755060e-01
5.525000e-01	8.328280e-01	9.754720e-01
5.550000e-01	8.280230e-01	9.756540e-01
5.575000e-01	8.337330e-01	9.755830e-01
5.600000e-01	8.271240e-01	9.758920e-01
5.625000e-01	8.345420e-01	9.755700e-01
5.650000e-01	8.261720e-01	9.759380e-01
5.675000e-01	8.352660e-01	9.755770e-01
5.700000e-01	8.253630e-01	9.757690e-01
5.725000e-01	8.360850e-01	9.755720e-01
5.750000e-01	8.245950e-01	9.757090e-01
5.775000e-01	8.368090e-01	9.755350e-01
5.800000e-01	8.238310e-01	9.756150e-01
5.825000e-01	8.374000e-01	9.754890e-01
5.850000e-01	8.230720e-01	9.755550e-01
5.875000e-01	8.379900e-01	9.753510e-01
5.900000e-01	8.223790e-01	9.753700e-01
5.925000e-01	8.385160e-01	9.752390e-01
5.950000e-01	8.216540e-01	9.753020e-01
5.975000e-01	8.389730e-01	9.751860e-01
6.000000e-01	8.209680e-01	9.752020e-01
6.025000e-01	8.394350e-01	9.750970e-01
6.050000e-01	8.202280e-01	9.749570e-01
6.075000e-01	8.398750e-01	9.749810e-01
6.100000e-01	8.207660e-01	9.748280e-01
6.125000e-01	8.403270e-01	9.748110e-01
6.150000e-01	8.218250e-01	9.746280e-01
6.175000e-01	8.407070e-01	9.747530e-01
6.200000e-01	8.229120e-01	9.744730e-01
6.225000e-01	8.411340e-01	9.746410e-01
6.250000e-01	8.240520e-01	9.743080e-01
6.275000e-01	8.414810e-01	9.744690e-01
6.300000e-01	8.250940e-01	9.741900e-01
6.325000e-01	8.418590e-01	9.742690e-01
6.350000e-01	8.260820e-01	9.740990e-01
6.375000e-01	8.422900e-01	9.740350e-01
6.400000e-01	8.270560e-01	9.739950e-01
6.425000e-01	8.426700e-01	9.738670e-01
6.450000e-01	8.279140e-01	9.738470e-01
6.475000e-01	8.429540e-01	9.737550e-01
6.500000e-01	8.286740e-01	9.737220e-01
6.525000e-01	8.431840e-01	9.736490e-01
6.550000e-01	8.294220e-01	9.735720e-01
6.575000e-01	8.431920e-01	9.735050e-01
6.600000e-01	8.300510e-01	9.734330e-01
6.625000e-01	8.431490e-01	9.733720e-01
6.650000e-01	8.306260e-01	9.733240e-01
6.675000e-01	8.430250e-01	9.731850e-01
6.700000e-01	8.311410e-01	9.731980e-01
6.725000e-01	8.427670e-01	9.730000e-01
6.750000e-01	8.316100e-01	9.730470e-01
6.775000e-01	8.424400e-01	9.728550e-01
6.800000e-01	8.319890e-01	9.728990e-01
6.825000e-01	8.420740e-01	9.727410e-01
6.850000e-01	8.322520e-01	9.727750e-01
6.875000e-01	8.416590e-01	9.726140e-01
6.900000e-01	8.324140e-01	9.726520e-01
6.925000e-01	8.412310e-01	9.724760e-01
6.950000e-01	8.325130e-01	9.725190e-01
6.975000e-01	8.408260e-01	9.723680e-01
7.000000e-01	8.325770e-01	9.724000e-01
7.025000e-01	8.404560e-01	9.722760e-01
7.050000e-01	8.326040e-01	9.722800e-01
7.075000e-01	8.400960e-01	9.721820e-01
7.100000e-01	8.325870e-01	9.721790e-01
7.125000e-01	8.397580e-01	9.720960e-01
7.150000e-01	8.325440e-01	9.720830e-01
7.175000e-01	8.394620e-01	9.720270e-01
7.200000e-01	8.324940e-01	9.720090e-01
7.225000e-01	8.391830e-01	9.719520e-01
7.250000e-01	8.324430e-01	9.719420e-01
7.275000e-01	8.389170e-01	9.719000e-01
7.300000e-01	8.323880e-01	9.718760e-01
7.325000e-01	8.386750e-01	9.718590e-01
7.350000e-01	8.323310e-01	9.718170e-01
7.375000e-01	8.384550e-01	9.718200e-01
7.400000e-01	8.322850e-01	9.717670e-01
7.425000e-01	8.382500e-01	9.717730e-01
7.450000e-01	8.322570e-01	9.717280e-01
7.475000e-01	8.380620e-01	9.717250e-01
7.500000e-01	8.322320e-01	9.716940e-01
7.525000e-01	8.378980e-01	9.716770e-01
7.550000e-01	8.322180e-01	9.716760e-01
7.575000e-01	8.377590e-01	9.716390e-01
7.600000e-01	8.322090e-01	9.716560e-01
7.625000e-01	8.376400e-01	9.716080e-01
7.650000e-01	8.321930e-01	9.716300e-01
7.675000e-01	8.375330e-01	9.715700e-01
7.700000e-01	8.321660e-01	9.716190e-01
7.725000e-01	8.374410e-01	9.715280e-01
7.750000e-01	8.321280e-01	9.716250e-01
7.775000e-01	8.373620e-01	9.714980e-01
7.800000e-01	8.320970e-01	9.716140e-01
7.825000e-01	8.372870e-01	9.714850e-01
7.850000e-01	8.320680e-01	9.716030e-01
7.875000e-01	8.372100e-01	9.714860e-01
7.900000e-01	8.320330e-01	9.715980e-01
7.925000e-01	8.371320e-01	9.714930e-01
7.950000e-01	8.320010e-01	9.715990e-01
7.975000e-01	8.370540e-01	9.714960e-01
8.000000e-01	8.319720e-01	9.716120e-01
8.025000e-01	8.369800e-01	9.714950e-01
8.050000e-01	8.319380e-01	9.716240e-01
8.075000e-01	8.369060e-01	9.715060e-01
8.100000e-01	8.318960e-01	9.716310e-01
8.125000e-01	8.368490e-01	9.715170e-01
8.150000e-01	8.318470e-01	9.716280e-01
8.175000e-01	8.368000e-01	9.715290e-01
8.200000e-01	8.317930e-01	9.716220e-01
8.225000e-01	8.367470e-01	9.715490e-01
8.250000e-01	8.317420e-01	9.716160e-01
8.275000e-01	8.366950e-01	9.715630e-01
8.300000e-01	8.316850e-01	9.716090e-01
8.325000e-01	8.366470e-01	9.715770e-01
8.350000e-01	8.316250e-01	9.715980e-01
8.375000e-01	8.366010e-01	9.715870e-01
8.400000e-01	8.315730e-01	9.715940e-01
8.425000e-01	8.365570e-01	9.715960e-01
8.450000e-01	8.315240e-01	9.715990e-01
8.475000e-01	8.365090e-01	9.715960e-01
8.500000e-01	8.314750e-01	9.716020e-01
8.525000e-01	8.364540e-01	9.715990e-01
8.550000e-01	8.314320e-01	9.716020e-01
8.575000e-01	8.363930e-01	9.715940e-01
8.600000e-01	8.313920e-01	9.715960e-01
8.625000e-01	8.363300e-01	9.715800e-01
8.650000e-01	8.313540e-01	9.715890e-01
8.675000e-01	8.362670e-01	9.715640e-01
8.700000e-01	8.313140e-01	9.715930e-01
8.725000e-01	8.362040e-01	9.715390e-01
8.750000e-01	8.312800e-01	9.716080e-01
8.775000e-01	8.361480e-01	9.715190e-01
8.800000e-01	8.312420e-01	9.716140e-01
8.825000e-01	8.360930e-01	9.714960e-01
8.850000e-01	8.312000e-01	9.716200e-01
8.875000e-01	8.360340e-01	9.714760e-01
8.900000e-01	8.311520e-01	9.716240e-01
8.925000e-01	8.359740e-01	9.714510e-01
8.950000e-01	8.311080e-01	9.716240e-01
8.975000e-01	8.359110e-01	9.714450e-01
9.000000e-01	8.310650e-01	9.716300e-01
9.025000e-01	8.358400e-01	9.714450e-01
9.050000e-01	8.310200e-01	9.716470e-01
9.075000e-01	8.357610e-01	9.714510e-01
9.100000e-01	8.309800e-01	9.716580e-01
9.125000e-01	8.356760e-01	9.714610e-01
9.150000e-01	8.309470e-01	9.716570e-01
9.175000e-01	8.355890e-01	9.714780e-01
9.200000e-01	8.309310e-01	9.716590e-01
9.225000e-01	8.355040e-01	9.714950e-01
9.250000e-01	8.309170e-01	9.716630e-01
9.275000e-01	8.354210e-01	9.715170e-01
9.300000e-01	8.308970e-01	9.716670e-01
9.325000e-01	8.353310e-01	9.715370e-01
9.350000e-01	8.308820e-01	9.716710e-01
9.375000e-01	8.352410e-01	9.715550e-01
9.400000e-01	8.308660e-01	9.716740e-01
9.425000e-01	8.351560e-01	9.715660e-01
9.450000e-01	8.308520e-01	9.716740e-01
9.475000e-01	8.350800e-01	9.715740e-01
9.500000e-01	8.308380e-01	9.716660e-01
9.525000e-01	8.350000e-01	9.715720e-01
9.550000e-01	8.308230e-01	9.716550e-01
9.575000e-01	8.349240e-01	9.715670e-01
9.600000e-01	8.307910e-01	9.716480e-01
9.625000e-01	8.348470e-01	9.715640e-01
9.650000e-01	8.307490e-01	9.716350e-01
9.675000e-01	8.347700e-01	9.715390e-01
9.700000e-01	8.306990e-01	9.716200e-01
9.725000e-01	8.346910e-01	9.715200e-01
9.750000e-01	8.306480e-01	9.716120e-01
9.775000e-01	8.346060e-01	9.715050e-01
9.800000e-01	8.305970e-01	9.716060e-01
9.825000e-01	8.345100e-01	9.714850e-01
9.850000e-01	8.305440e-01	9.715970e-01
9.875000e-01	8.344110e-01	9.714660e-01
9.900000e-01	8.304970e-01	9.715790e-01
9.925000e-01	8.343000e-01	9.714430e-01
9.950000e-01	8.304570e-01	9.715750e-01
9.975000e-01	8.341880e-01	9.714200e-01
1.000000e+00	8.304180e-01	9.715750e-01
